# Lorenzo Manunza 12th April 2024

1008 atoms
1 atom types

-0.71 50.41 xlo xhi
-0.71 51.13 ylo yhi
-1000.00 1000.00 zlo zhi

Masses

1 12.011 # C

Atoms

   1 1  0.00  0.000000 0.0
   2 1  0.71  1.229756 0.0
   3 1  2.13  1.229756 0.0
   4 1  2.84  0.000000 0.0
   5 1  0.00  2.459512 0.0
   6 1  0.71  3.689268 0.0
   7 1  2.13  3.689268 0.0
   8 1  2.84  2.459512 0.0
   9 1  0.00  4.919024 0.0
  10 1  0.71  6.148780 0.0
  11 1  2.13  6.148780 0.0
  12 1  2.84  4.919024 0.0
  13 1  0.00  7.378536 0.0
  14 1  0.71  8.608293 0.0
  15 1  2.13  8.608293 0.0
  16 1  2.84  7.378536 0.0
  17 1  0.00  9.838049 0.0
  18 1  0.71 11.067805 0.0
  19 1  2.13 11.067805 0.0
  20 1  2.84  9.838049 0.0
  21 1  0.00 12.297561 0.0
  22 1  0.71 13.527317 0.0
  23 1  2.13 13.527317 0.0
  24 1  2.84 12.297561 0.0
  25 1  0.00 14.757073 0.0
  26 1  0.71 15.986829 0.0
  27 1  2.13 15.986829 0.0
  28 1  2.84 14.757073 0.0
  29 1  0.00 17.216585 0.0
  30 1  0.71 18.446341 0.0
  31 1  2.13 18.446341 0.0
  32 1  2.84 17.216585 0.0
  33 1  0.00 19.676097 0.0
  34 1  0.71 20.905853 0.0
  35 1  2.13 20.905853 0.0
  36 1  2.84 19.676097 0.0
  37 1  0.00 22.135609 0.0
  38 1  0.71 23.365365 0.0
  39 1  2.13 23.365365 0.0
  40 1  2.84 22.135609 0.0
  41 1  0.00 24.595121 0.0
  42 1  0.71 25.824878 0.0
  43 1  2.13 25.824878 0.0
  44 1  2.84 24.595121 0.0
  45 1  0.00 27.054634 0.0
  46 1  0.71 28.284390 0.0
  47 1  2.13 28.284390 0.0
  48 1  2.84 27.054634 0.0
  49 1  0.00 29.514146 0.0
  50 1  0.71 30.743902 0.0
  51 1  2.13 30.743902 0.0
  52 1  2.84 29.514146 0.0
  53 1  0.00 31.973658 0.0
  54 1  0.71 33.203414 0.0
  55 1  2.13 33.203414 0.0
  56 1  2.84 31.973658 0.0
  57 1  0.00 34.433170 0.0
  58 1  0.71 35.662926 0.0
  59 1  2.13 35.662926 0.0
  60 1  2.84 34.433170 0.0
  61 1  0.00 36.892682 0.0
  62 1  0.71 38.122438 0.0
  63 1  2.13 38.122438 0.0
  64 1  2.84 36.892682 0.0
  65 1  0.00 39.352194 0.0
  66 1  0.71 40.581950 0.0
  67 1  2.13 40.581950 0.0
  68 1  2.84 39.352194 0.0
  69 1  0.00 41.811706 0.0
  70 1  0.71 43.041463 0.0
  71 1  2.13 43.041463 0.0
  72 1  2.84 41.811706 0.0
  73 1  0.00 44.271219 0.0
  74 1  0.71 45.500975 0.0
  75 1  2.13 45.500975 0.0
  76 1  2.84 44.271219 0.0
  77 1  0.00 46.730731 0.0
  78 1  0.71 47.960487 0.0
  79 1  2.13 47.960487 0.0
  80 1  2.84 46.730731 0.0
  81 1  0.00 49.190243 0.0
  82 1  0.71 50.419999 0.0
  83 1  2.13 50.419999 0.0
  84 1  2.84 49.190243 0.0
  85 1  4.26  0.000000 0.0
  86 1  4.97  1.229756 0.0
  87 1  6.39  1.229756 0.0
  88 1  7.10  0.000000 0.0
  89 1  4.26  2.459512 0.0
  90 1  4.97  3.689268 0.0
  91 1  6.39  3.689268 0.0
  92 1  7.10  2.459512 0.0
  93 1  4.26  4.919024 0.0
  94 1  4.97  6.148780 0.0
  95 1  6.39  6.148780 0.0
  96 1  7.10  4.919024 0.0
  97 1  4.26  7.378536 0.0
  98 1  4.97  8.608293 0.0
  99 1  6.39  8.608293 0.0
 100 1  7.10  7.378536 0.0
 101 1  4.26  9.838049 0.0
 102 1  4.97 11.067805 0.0
 103 1  6.39 11.067805 0.0
 104 1  7.10  9.838049 0.0
 105 1  4.26 12.297561 0.0
 106 1  4.97 13.527317 0.0
 107 1  6.39 13.527317 0.0
 108 1  7.10 12.297561 0.0
 109 1  4.26 14.757073 0.0
 110 1  4.97 15.986829 0.0
 111 1  6.39 15.986829 0.0
 112 1  7.10 14.757073 0.0
 113 1  4.26 17.216585 0.0
 114 1  4.97 18.446341 0.0
 115 1  6.39 18.446341 0.0
 116 1  7.10 17.216585 0.0
 117 1  4.26 19.676097 0.0
 118 1  4.97 20.905853 0.0
 119 1  6.39 20.905853 0.0
 120 1  7.10 19.676097 0.0
 121 1  4.26 22.135609 0.0
 122 1  4.97 23.365365 0.0
 123 1  6.39 23.365365 0.0
 124 1  7.10 22.135609 0.0
 125 1  4.26 24.595121 0.0
 126 1  4.97 25.824878 0.0
 127 1  6.39 25.824878 0.0
 128 1  7.10 24.595121 0.0
 129 1  4.26 27.054634 0.0
 130 1  4.97 28.284390 0.0
 131 1  6.39 28.284390 0.0
 132 1  7.10 27.054634 0.0
 133 1  4.26 29.514146 0.0
 134 1  4.97 30.743902 0.0
 135 1  6.39 30.743902 0.0
 136 1  7.10 29.514146 0.0
 137 1  4.26 31.973658 0.0
 138 1  4.97 33.203414 0.0
 139 1  6.39 33.203414 0.0
 140 1  7.10 31.973658 0.0
 141 1  4.26 34.433170 0.0
 142 1  4.97 35.662926 0.0
 143 1  6.39 35.662926 0.0
 144 1  7.10 34.433170 0.0
 145 1  4.26 36.892682 0.0
 146 1  4.97 38.122438 0.0
 147 1  6.39 38.122438 0.0
 148 1  7.10 36.892682 0.0
 149 1  4.26 39.352194 0.0
 150 1  4.97 40.581950 0.0
 151 1  6.39 40.581950 0.0
 152 1  7.10 39.352194 0.0
 153 1  4.26 41.811706 0.0
 154 1  4.97 43.041463 0.0
 155 1  6.39 43.041463 0.0
 156 1  7.10 41.811706 0.0
 157 1  4.26 44.271219 0.0
 158 1  4.97 45.500975 0.0
 159 1  6.39 45.500975 0.0
 160 1  7.10 44.271219 0.0
 161 1  4.26 46.730731 0.0
 162 1  4.97 47.960487 0.0
 163 1  6.39 47.960487 0.0
 164 1  7.10 46.730731 0.0
 165 1  4.26 49.190243 0.0
 166 1  4.97 50.419999 0.0
 167 1  6.39 50.419999 0.0
 168 1  7.10 49.190243 0.0
 169 1  8.52  0.000000 0.0
 170 1  9.23  1.229756 0.0
 171 1 10.65  1.229756 0.0
 172 1 11.36  0.000000 0.0
 173 1  8.52  2.459512 0.0
 174 1  9.23  3.689268 0.0
 175 1 10.65  3.689268 0.0
 176 1 11.36  2.459512 0.0
 177 1  8.52  4.919024 0.0
 178 1  9.23  6.148780 0.0
 179 1 10.65  6.148780 0.0
 180 1 11.36  4.919024 0.0
 181 1  8.52  7.378536 0.0
 182 1  9.23  8.608293 0.0
 183 1 10.65  8.608293 0.0
 184 1 11.36  7.378536 0.0
 185 1  8.52  9.838049 0.0
 186 1  9.23 11.067805 0.0
 187 1 10.65 11.067805 0.0
 188 1 11.36  9.838049 0.0
 189 1  8.52 12.297561 0.0
 190 1  9.23 13.527317 0.0
 191 1 10.65 13.527317 0.0
 192 1 11.36 12.297561 0.0
 193 1  8.52 14.757073 0.0
 194 1  9.23 15.986829 0.0
 195 1 10.65 15.986829 0.0
 196 1 11.36 14.757073 0.0
 197 1  8.52 17.216585 0.0
 198 1  9.23 18.446341 0.0
 199 1 10.65 18.446341 0.0
 200 1 11.36 17.216585 0.0
 201 1  8.52 19.676097 0.0
 202 1  9.23 20.905853 0.0
 203 1 10.65 20.905853 0.0
 204 1 11.36 19.676097 0.0
 205 1  8.52 22.135609 0.0
 206 1  9.23 23.365365 0.0
 207 1 10.65 23.365365 0.0
 208 1 11.36 22.135609 0.0
 209 1  8.52 24.595121 0.0
 210 1  9.23 25.824878 0.0
 211 1 10.65 25.824878 0.0
 212 1 11.36 24.595121 0.0
 213 1  8.52 27.054634 0.0
 214 1  9.23 28.284390 0.0
 215 1 10.65 28.284390 0.0
 216 1 11.36 27.054634 0.0
 217 1  8.52 29.514146 0.0
 218 1  9.23 30.743902 0.0
 219 1 10.65 30.743902 0.0
 220 1 11.36 29.514146 0.0
 221 1  8.52 31.973658 0.0
 222 1  9.23 33.203414 0.0
 223 1 10.65 33.203414 0.0
 224 1 11.36 31.973658 0.0
 225 1  8.52 34.433170 0.0
 226 1  9.23 35.662926 0.0
 227 1 10.65 35.662926 0.0
 228 1 11.36 34.433170 0.0
 229 1  8.52 36.892682 0.0
 230 1  9.23 38.122438 0.0
 231 1 10.65 38.122438 0.0
 232 1 11.36 36.892682 0.0
 233 1  8.52 39.352194 0.0
 234 1  9.23 40.581950 0.0
 235 1 10.65 40.581950 0.0
 236 1 11.36 39.352194 0.0
 237 1  8.52 41.811706 0.0
 238 1  9.23 43.041463 0.0
 239 1 10.65 43.041463 0.0
 240 1 11.36 41.811706 0.0
 241 1  8.52 44.271219 0.0
 242 1  9.23 45.500975 0.0
 243 1 10.65 45.500975 0.0
 244 1 11.36 44.271219 0.0
 245 1  8.52 46.730731 0.0
 246 1  9.23 47.960487 0.0
 247 1 10.65 47.960487 0.0
 248 1 11.36 46.730731 0.0
 249 1  8.52 49.190243 0.0
 250 1  9.23 50.419999 0.0
 251 1 10.65 50.419999 0.0
 252 1 11.36 49.190243 0.0
 253 1 12.78  0.000000 0.0
 254 1 13.49  1.229756 0.0
 255 1 14.91  1.229756 0.0
 256 1 15.62  0.000000 0.0
 257 1 12.78  2.459512 0.0
 258 1 13.49  3.689268 0.0
 259 1 14.91  3.689268 0.0
 260 1 15.62  2.459512 0.0
 261 1 12.78  4.919024 0.0
 262 1 13.49  6.148780 0.0
 263 1 14.91  6.148780 0.0
 264 1 15.62  4.919024 0.0
 265 1 12.78  7.378536 0.0
 266 1 13.49  8.608293 0.0
 267 1 14.91  8.608293 0.0
 268 1 15.62  7.378536 0.0
 269 1 12.78  9.838049 0.0
 270 1 13.49 11.067805 0.0
 271 1 14.91 11.067805 0.0
 272 1 15.62  9.838049 0.0
 273 1 12.78 12.297561 0.0
 274 1 13.49 13.527317 0.0
 275 1 14.91 13.527317 0.0
 276 1 15.62 12.297561 0.0
 277 1 12.78 14.757073 0.0
 278 1 13.49 15.986829 0.0
 279 1 14.91 15.986829 0.0
 280 1 15.62 14.757073 0.0
 281 1 12.78 17.216585 0.0
 282 1 13.49 18.446341 0.0
 283 1 14.91 18.446341 0.0
 284 1 15.62 17.216585 0.0
 285 1 12.78 19.676097 0.0
 286 1 13.49 20.905853 0.0
 287 1 14.91 20.905853 0.0
 288 1 15.62 19.676097 0.0
 289 1 12.78 22.135609 0.0
 290 1 13.49 23.365365 0.0
 291 1 14.91 23.365365 0.0
 292 1 15.62 22.135609 0.0
 293 1 12.78 24.595121 0.0
 294 1 13.49 25.824878 0.0
 295 1 14.91 25.824878 0.0
 296 1 15.62 24.595121 0.0
 297 1 12.78 27.054634 0.0
 298 1 13.49 28.284390 0.0
 299 1 14.91 28.284390 0.0
 300 1 15.62 27.054634 0.0
 301 1 12.78 29.514146 0.0
 302 1 13.49 30.743902 0.0
 303 1 14.91 30.743902 0.0
 304 1 15.62 29.514146 0.0
 305 1 12.78 31.973658 0.0
 306 1 13.49 33.203414 0.0
 307 1 14.91 33.203414 0.0
 308 1 15.62 31.973658 0.0
 309 1 12.78 34.433170 0.0
 310 1 13.49 35.662926 0.0
 311 1 14.91 35.662926 0.0
 312 1 15.62 34.433170 0.0
 313 1 12.78 36.892682 0.0
 314 1 13.49 38.122438 0.0
 315 1 14.91 38.122438 0.0
 316 1 15.62 36.892682 0.0
 317 1 12.78 39.352194 0.0
 318 1 13.49 40.581950 0.0
 319 1 14.91 40.581950 0.0
 320 1 15.62 39.352194 0.0
 321 1 12.78 41.811706 0.0
 322 1 13.49 43.041463 0.0
 323 1 14.91 43.041463 0.0
 324 1 15.62 41.811706 0.0
 325 1 12.78 44.271219 0.0
 326 1 13.49 45.500975 0.0
 327 1 14.91 45.500975 0.0
 328 1 15.62 44.271219 0.0
 329 1 12.78 46.730731 0.0
 330 1 13.49 47.960487 0.0
 331 1 14.91 47.960487 0.0
 332 1 15.62 46.730731 0.0
 333 1 12.78 49.190243 0.0
 334 1 13.49 50.419999 0.0
 335 1 14.91 50.419999 0.0
 336 1 15.62 49.190243 0.0
 337 1 17.04  0.000000 0.0
 338 1 17.75  1.229756 0.0
 339 1 19.17  1.229756 0.0
 340 1 19.88  0.000000 0.0
 341 1 17.04  2.459512 0.0
 342 1 17.75  3.689268 0.0
 343 1 19.17  3.689268 0.0
 344 1 19.88  2.459512 0.0
 345 1 17.04  4.919024 0.0
 346 1 17.75  6.148780 0.0
 347 1 19.17  6.148780 0.0
 348 1 19.88  4.919024 0.0
 349 1 17.04  7.378536 0.0
 350 1 17.75  8.608293 0.0
 351 1 19.17  8.608293 0.0
 352 1 19.88  7.378536 0.0
 353 1 17.04  9.838049 0.0
 354 1 17.75 11.067805 0.0
 355 1 19.17 11.067805 0.0
 356 1 19.88  9.838049 0.0
 357 1 17.04 12.297561 0.0
 358 1 17.75 13.527317 0.0
 359 1 19.17 13.527317 0.0
 360 1 19.88 12.297561 0.0
 361 1 17.04 14.757073 0.0
 362 1 17.75 15.986829 0.0
 363 1 19.17 15.986829 0.0
 364 1 19.88 14.757073 0.0
 365 1 17.04 17.216585 0.0
 366 1 17.75 18.446341 0.0
 367 1 19.17 18.446341 0.0
 368 1 19.88 17.216585 0.0
 369 1 17.04 19.676097 0.0
 370 1 17.75 20.905853 0.0
 371 1 19.17 20.905853 0.0
 372 1 19.88 19.676097 0.0
 373 1 17.04 22.135609 0.0
 374 1 17.75 23.365365 0.0
 375 1 19.17 23.365365 0.0
 376 1 19.88 22.135609 0.0
 377 1 17.04 24.595121 0.0
 378 1 17.75 25.824878 0.0
 379 1 19.17 25.824878 0.0
 380 1 19.88 24.595121 0.0
 381 1 17.04 27.054634 0.0
 382 1 17.75 28.284390 0.0
 383 1 19.17 28.284390 0.0
 384 1 19.88 27.054634 0.0
 385 1 17.04 29.514146 0.0
 386 1 17.75 30.743902 0.0
 387 1 19.17 30.743902 0.0
 388 1 19.88 29.514146 0.0
 389 1 17.04 31.973658 0.0
 390 1 17.75 33.203414 0.0
 391 1 19.17 33.203414 0.0
 392 1 19.88 31.973658 0.0
 393 1 17.04 34.433170 0.0
 394 1 17.75 35.662926 0.0
 395 1 19.17 35.662926 0.0
 396 1 19.88 34.433170 0.0
 397 1 17.04 36.892682 0.0
 398 1 17.75 38.122438 0.0
 399 1 19.17 38.122438 0.0
 400 1 19.88 36.892682 0.0
 401 1 17.04 39.352194 0.0
 402 1 17.75 40.581950 0.0
 403 1 19.17 40.581950 0.0
 404 1 19.88 39.352194 0.0
 405 1 17.04 41.811706 0.0
 406 1 17.75 43.041463 0.0
 407 1 19.17 43.041463 0.0
 408 1 19.88 41.811706 0.0
 409 1 17.04 44.271219 0.0
 410 1 17.75 45.500975 0.0
 411 1 19.17 45.500975 0.0
 412 1 19.88 44.271219 0.0
 413 1 17.04 46.730731 0.0
 414 1 17.75 47.960487 0.0
 415 1 19.17 47.960487 0.0
 416 1 19.88 46.730731 0.0
 417 1 17.04 49.190243 0.0
 418 1 17.75 50.419999 0.0
 419 1 19.17 50.419999 0.0
 420 1 19.88 49.190243 0.0
 421 1 21.30  0.000000 0.0
 422 1 22.01  1.229756 0.0
 423 1 23.43  1.229756 0.0
 424 1 24.14  0.000000 0.0
 425 1 21.30  2.459512 0.0
 426 1 22.01  3.689268 0.0
 427 1 23.43  3.689268 0.0
 428 1 24.14  2.459512 0.0
 429 1 21.30  4.919024 0.0
 430 1 22.01  6.148780 0.0
 431 1 23.43  6.148780 0.0
 432 1 24.14  4.919024 0.0
 433 1 21.30  7.378536 0.0
 434 1 22.01  8.608293 0.0
 435 1 23.43  8.608293 0.0
 436 1 24.14  7.378536 0.0
 437 1 21.30  9.838049 0.0
 438 1 22.01 11.067805 0.0
 439 1 23.43 11.067805 0.0
 440 1 24.14  9.838049 0.0
 441 1 21.30 12.297561 0.0
 442 1 22.01 13.527317 0.0
 443 1 23.43 13.527317 0.0
 444 1 24.14 12.297561 0.0
 445 1 21.30 14.757073 0.0
 446 1 22.01 15.986829 0.0
 447 1 23.43 15.986829 0.0
 448 1 24.14 14.757073 0.0
 449 1 21.30 17.216585 0.0
 450 1 22.01 18.446341 0.0
 451 1 23.43 18.446341 0.0
 452 1 24.14 17.216585 0.0
 453 1 21.30 19.676097 0.0
 454 1 22.01 20.905853 0.0
 455 1 23.43 20.905853 0.0
 456 1 24.14 19.676097 0.0
 457 1 21.30 22.135609 0.0
 458 1 22.01 23.365365 0.0
 459 1 23.43 23.365365 0.0
 460 1 24.14 22.135609 0.0
 461 1 21.30 24.595121 0.0
 462 1 22.01 25.824878 0.0
 463 1 23.43 25.824878 0.0
 464 1 24.14 24.595121 0.0
 465 1 21.30 27.054634 0.0
 466 1 22.01 28.284390 0.0
 467 1 23.43 28.284390 0.0
 468 1 24.14 27.054634 0.0
 469 1 21.30 29.514146 0.0
 470 1 22.01 30.743902 0.0
 471 1 23.43 30.743902 0.0
 472 1 24.14 29.514146 0.0
 473 1 21.30 31.973658 0.0
 474 1 22.01 33.203414 0.0
 475 1 23.43 33.203414 0.0
 476 1 24.14 31.973658 0.0
 477 1 21.30 34.433170 0.0
 478 1 22.01 35.662926 0.0
 479 1 23.43 35.662926 0.0
 480 1 24.14 34.433170 0.0
 481 1 21.30 36.892682 0.0
 482 1 22.01 38.122438 0.0
 483 1 23.43 38.122438 0.0
 484 1 24.14 36.892682 0.0
 485 1 21.30 39.352194 0.0
 486 1 22.01 40.581950 0.0
 487 1 23.43 40.581950 0.0
 488 1 24.14 39.352194 0.0
 489 1 21.30 41.811706 0.0
 490 1 22.01 43.041463 0.0
 491 1 23.43 43.041463 0.0
 492 1 24.14 41.811706 0.0
 493 1 21.30 44.271219 0.0
 494 1 22.01 45.500975 0.0
 495 1 23.43 45.500975 0.0
 496 1 24.14 44.271219 0.0
 497 1 21.30 46.730731 0.0
 498 1 22.01 47.960487 0.0
 499 1 23.43 47.960487 0.0
 500 1 24.14 46.730731 0.0
 501 1 21.30 49.190243 0.0
 502 1 22.01 50.419999 0.0
 503 1 23.43 50.419999 0.0
 504 1 24.14 49.190243 0.0
 505 1 25.56  0.000000 0.0
 506 1 26.27  1.229756 0.0
 507 1 27.69  1.229756 0.0
 508 1 28.40  0.000000 0.0
 509 1 25.56  2.459512 0.0
 510 1 26.27  3.689268 0.0
 511 1 27.69  3.689268 0.0
 512 1 28.40  2.459512 0.0
 513 1 25.56  4.919024 0.0
 514 1 26.27  6.148780 0.0
 515 1 27.69  6.148780 0.0
 516 1 28.40  4.919024 0.0
 517 1 25.56  7.378536 0.0
 518 1 26.27  8.608293 0.0
 519 1 27.69  8.608293 0.0
 520 1 28.40  7.378536 0.0
 521 1 25.56  9.838049 0.0
 522 1 26.27 11.067805 0.0
 523 1 27.69 11.067805 0.0
 524 1 28.40  9.838049 0.0
 525 1 25.56 12.297561 0.0
 526 1 26.27 13.527317 0.0
 527 1 27.69 13.527317 0.0
 528 1 28.40 12.297561 0.0
 529 1 25.56 14.757073 0.0
 530 1 26.27 15.986829 0.0
 531 1 27.69 15.986829 0.0
 532 1 28.40 14.757073 0.0
 533 1 25.56 17.216585 0.0
 534 1 26.27 18.446341 0.0
 535 1 27.69 18.446341 0.0
 536 1 28.40 17.216585 0.0
 537 1 25.56 19.676097 0.0
 538 1 26.27 20.905853 0.0
 539 1 27.69 20.905853 0.0
 540 1 28.40 19.676097 0.0
 541 1 25.56 22.135609 0.0
 542 1 26.27 23.365365 0.0
 543 1 27.69 23.365365 0.0
 544 1 28.40 22.135609 0.0
 545 1 25.56 24.595121 0.0
 546 1 26.27 25.824878 0.0
 547 1 27.69 25.824878 0.0
 548 1 28.40 24.595121 0.0
 549 1 25.56 27.054634 0.0
 550 1 26.27 28.284390 0.0
 551 1 27.69 28.284390 0.0
 552 1 28.40 27.054634 0.0
 553 1 25.56 29.514146 0.0
 554 1 26.27 30.743902 0.0
 555 1 27.69 30.743902 0.0
 556 1 28.40 29.514146 0.0
 557 1 25.56 31.973658 0.0
 558 1 26.27 33.203414 0.0
 559 1 27.69 33.203414 0.0
 560 1 28.40 31.973658 0.0
 561 1 25.56 34.433170 0.0
 562 1 26.27 35.662926 0.0
 563 1 27.69 35.662926 0.0
 564 1 28.40 34.433170 0.0
 565 1 25.56 36.892682 0.0
 566 1 26.27 38.122438 0.0
 567 1 27.69 38.122438 0.0
 568 1 28.40 36.892682 0.0
 569 1 25.56 39.352194 0.0
 570 1 26.27 40.581950 0.0
 571 1 27.69 40.581950 0.0
 572 1 28.40 39.352194 0.0
 573 1 25.56 41.811706 0.0
 574 1 26.27 43.041463 0.0
 575 1 27.69 43.041463 0.0
 576 1 28.40 41.811706 0.0
 577 1 25.56 44.271219 0.0
 578 1 26.27 45.500975 0.0
 579 1 27.69 45.500975 0.0
 580 1 28.40 44.271219 0.0
 581 1 25.56 46.730731 0.0
 582 1 26.27 47.960487 0.0
 583 1 27.69 47.960487 0.0
 584 1 28.40 46.730731 0.0
 585 1 25.56 49.190243 0.0
 586 1 26.27 50.419999 0.0
 587 1 27.69 50.419999 0.0
 588 1 28.40 49.190243 0.0
 589 1 29.82  0.000000 0.0
 590 1 30.53  1.229756 0.0
 591 1 31.95  1.229756 0.0
 592 1 32.66  0.000000 0.0
 593 1 29.82  2.459512 0.0
 594 1 30.53  3.689268 0.0
 595 1 31.95  3.689268 0.0
 596 1 32.66  2.459512 0.0
 597 1 29.82  4.919024 0.0
 598 1 30.53  6.148780 0.0
 599 1 31.95  6.148780 0.0
 600 1 32.66  4.919024 0.0
 601 1 29.82  7.378536 0.0
 602 1 30.53  8.608293 0.0
 603 1 31.95  8.608293 0.0
 604 1 32.66  7.378536 0.0
 605 1 29.82  9.838049 0.0
 606 1 30.53 11.067805 0.0
 607 1 31.95 11.067805 0.0
 608 1 32.66  9.838049 0.0
 609 1 29.82 12.297561 0.0
 610 1 30.53 13.527317 0.0
 611 1 31.95 13.527317 0.0
 612 1 32.66 12.297561 0.0
 613 1 29.82 14.757073 0.0
 614 1 30.53 15.986829 0.0
 615 1 31.95 15.986829 0.0
 616 1 32.66 14.757073 0.0
 617 1 29.82 17.216585 0.0
 618 1 30.53 18.446341 0.0
 619 1 31.95 18.446341 0.0
 620 1 32.66 17.216585 0.0
 621 1 29.82 19.676097 0.0
 622 1 30.53 20.905853 0.0
 623 1 31.95 20.905853 0.0
 624 1 32.66 19.676097 0.0
 625 1 29.82 22.135609 0.0
 626 1 30.53 23.365365 0.0
 627 1 31.95 23.365365 0.0
 628 1 32.66 22.135609 0.0
 629 1 29.82 24.595121 0.0
 630 1 30.53 25.824878 0.0
 631 1 31.95 25.824878 0.0
 632 1 32.66 24.595121 0.0
 633 1 29.82 27.054634 0.0
 634 1 30.53 28.284390 0.0
 635 1 31.95 28.284390 0.0
 636 1 32.66 27.054634 0.0
 637 1 29.82 29.514146 0.0
 638 1 30.53 30.743902 0.0
 639 1 31.95 30.743902 0.0
 640 1 32.66 29.514146 0.0
 641 1 29.82 31.973658 0.0
 642 1 30.53 33.203414 0.0
 643 1 31.95 33.203414 0.0
 644 1 32.66 31.973658 0.0
 645 1 29.82 34.433170 0.0
 646 1 30.53 35.662926 0.0
 647 1 31.95 35.662926 0.0
 648 1 32.66 34.433170 0.0
 649 1 29.82 36.892682 0.0
 650 1 30.53 38.122438 0.0
 651 1 31.95 38.122438 0.0
 652 1 32.66 36.892682 0.0
 653 1 29.82 39.352194 0.0
 654 1 30.53 40.581950 0.0
 655 1 31.95 40.581950 0.0
 656 1 32.66 39.352194 0.0
 657 1 29.82 41.811706 0.0
 658 1 30.53 43.041463 0.0
 659 1 31.95 43.041463 0.0
 660 1 32.66 41.811706 0.0
 661 1 29.82 44.271219 0.0
 662 1 30.53 45.500975 0.0
 663 1 31.95 45.500975 0.0
 664 1 32.66 44.271219 0.0
 665 1 29.82 46.730731 0.0
 666 1 30.53 47.960487 0.0
 667 1 31.95 47.960487 0.0
 668 1 32.66 46.730731 0.0
 669 1 29.82 49.190243 0.0
 670 1 30.53 50.419999 0.0
 671 1 31.95 50.419999 0.0
 672 1 32.66 49.190243 0.0
 673 1 34.08  0.000000 0.0
 674 1 34.79  1.229756 0.0
 675 1 36.21  1.229756 0.0
 676 1 36.92  0.000000 0.0
 677 1 34.08  2.459512 0.0
 678 1 34.79  3.689268 0.0
 679 1 36.21  3.689268 0.0
 680 1 36.92  2.459512 0.0
 681 1 34.08  4.919024 0.0
 682 1 34.79  6.148780 0.0
 683 1 36.21  6.148780 0.0
 684 1 36.92  4.919024 0.0
 685 1 34.08  7.378536 0.0
 686 1 34.79  8.608293 0.0
 687 1 36.21  8.608293 0.0
 688 1 36.92  7.378536 0.0
 689 1 34.08  9.838049 0.0
 690 1 34.79 11.067805 0.0
 691 1 36.21 11.067805 0.0
 692 1 36.92  9.838049 0.0
 693 1 34.08 12.297561 0.0
 694 1 34.79 13.527317 0.0
 695 1 36.21 13.527317 0.0
 696 1 36.92 12.297561 0.0
 697 1 34.08 14.757073 0.0
 698 1 34.79 15.986829 0.0
 699 1 36.21 15.986829 0.0
 700 1 36.92 14.757073 0.0
 701 1 34.08 17.216585 0.0
 702 1 34.79 18.446341 0.0
 703 1 36.21 18.446341 0.0
 704 1 36.92 17.216585 0.0
 705 1 34.08 19.676097 0.0
 706 1 34.79 20.905853 0.0
 707 1 36.21 20.905853 0.0
 708 1 36.92 19.676097 0.0
 709 1 34.08 22.135609 0.0
 710 1 34.79 23.365365 0.0
 711 1 36.21 23.365365 0.0
 712 1 36.92 22.135609 0.0
 713 1 34.08 24.595121 0.0
 714 1 34.79 25.824878 0.0
 715 1 36.21 25.824878 0.0
 716 1 36.92 24.595121 0.0
 717 1 34.08 27.054634 0.0
 718 1 34.79 28.284390 0.0
 719 1 36.21 28.284390 0.0
 720 1 36.92 27.054634 0.0
 721 1 34.08 29.514146 0.0
 722 1 34.79 30.743902 0.0
 723 1 36.21 30.743902 0.0
 724 1 36.92 29.514146 0.0
 725 1 34.08 31.973658 0.0
 726 1 34.79 33.203414 0.0
 727 1 36.21 33.203414 0.0
 728 1 36.92 31.973658 0.0
 729 1 34.08 34.433170 0.0
 730 1 34.79 35.662926 0.0
 731 1 36.21 35.662926 0.0
 732 1 36.92 34.433170 0.0
 733 1 34.08 36.892682 0.0
 734 1 34.79 38.122438 0.0
 735 1 36.21 38.122438 0.0
 736 1 36.92 36.892682 0.0
 737 1 34.08 39.352194 0.0
 738 1 34.79 40.581950 0.0
 739 1 36.21 40.581950 0.0
 740 1 36.92 39.352194 0.0
 741 1 34.08 41.811706 0.0
 742 1 34.79 43.041463 0.0
 743 1 36.21 43.041463 0.0
 744 1 36.92 41.811706 0.0
 745 1 34.08 44.271219 0.0
 746 1 34.79 45.500975 0.0
 747 1 36.21 45.500975 0.0
 748 1 36.92 44.271219 0.0
 749 1 34.08 46.730731 0.0
 750 1 34.79 47.960487 0.0
 751 1 36.21 47.960487 0.0
 752 1 36.92 46.730731 0.0
 753 1 34.08 49.190243 0.0
 754 1 34.79 50.419999 0.0
 755 1 36.21 50.419999 0.0
 756 1 36.92 49.190243 0.0
 757 1 38.34  0.000000 0.0
 758 1 39.05  1.229756 0.0
 759 1 40.47  1.229756 0.0
 760 1 41.18  0.000000 0.0
 761 1 38.34  2.459512 0.0
 762 1 39.05  3.689268 0.0
 763 1 40.47  3.689268 0.0
 764 1 41.18  2.459512 0.0
 765 1 38.34  4.919024 0.0
 766 1 39.05  6.148780 0.0
 767 1 40.47  6.148780 0.0
 768 1 41.18  4.919024 0.0
 769 1 38.34  7.378536 0.0
 770 1 39.05  8.608293 0.0
 771 1 40.47  8.608293 0.0
 772 1 41.18  7.378536 0.0
 773 1 38.34  9.838049 0.0
 774 1 39.05 11.067805 0.0
 775 1 40.47 11.067805 0.0
 776 1 41.18  9.838049 0.0
 777 1 38.34 12.297561 0.0
 778 1 39.05 13.527317 0.0
 779 1 40.47 13.527317 0.0
 780 1 41.18 12.297561 0.0
 781 1 38.34 14.757073 0.0
 782 1 39.05 15.986829 0.0
 783 1 40.47 15.986829 0.0
 784 1 41.18 14.757073 0.0
 785 1 38.34 17.216585 0.0
 786 1 39.05 18.446341 0.0
 787 1 40.47 18.446341 0.0
 788 1 41.18 17.216585 0.0
 789 1 38.34 19.676097 0.0
 790 1 39.05 20.905853 0.0
 791 1 40.47 20.905853 0.0
 792 1 41.18 19.676097 0.0
 793 1 38.34 22.135609 0.0
 794 1 39.05 23.365365 0.0
 795 1 40.47 23.365365 0.0
 796 1 41.18 22.135609 0.0
 797 1 38.34 24.595121 0.0
 798 1 39.05 25.824878 0.0
 799 1 40.47 25.824878 0.0
 800 1 41.18 24.595121 0.0
 801 1 38.34 27.054634 0.0
 802 1 39.05 28.284390 0.0
 803 1 40.47 28.284390 0.0
 804 1 41.18 27.054634 0.0
 805 1 38.34 29.514146 0.0
 806 1 39.05 30.743902 0.0
 807 1 40.47 30.743902 0.0
 808 1 41.18 29.514146 0.0
 809 1 38.34 31.973658 0.0
 810 1 39.05 33.203414 0.0
 811 1 40.47 33.203414 0.0
 812 1 41.18 31.973658 0.0
 813 1 38.34 34.433170 0.0
 814 1 39.05 35.662926 0.0
 815 1 40.47 35.662926 0.0
 816 1 41.18 34.433170 0.0
 817 1 38.34 36.892682 0.0
 818 1 39.05 38.122438 0.0
 819 1 40.47 38.122438 0.0
 820 1 41.18 36.892682 0.0
 821 1 38.34 39.352194 0.0
 822 1 39.05 40.581950 0.0
 823 1 40.47 40.581950 0.0
 824 1 41.18 39.352194 0.0
 825 1 38.34 41.811706 0.0
 826 1 39.05 43.041463 0.0
 827 1 40.47 43.041463 0.0
 828 1 41.18 41.811706 0.0
 829 1 38.34 44.271219 0.0
 830 1 39.05 45.500975 0.0
 831 1 40.47 45.500975 0.0
 832 1 41.18 44.271219 0.0
 833 1 38.34 46.730731 0.0
 834 1 39.05 47.960487 0.0
 835 1 40.47 47.960487 0.0
 836 1 41.18 46.730731 0.0
 837 1 38.34 49.190243 0.0
 838 1 39.05 50.419999 0.0
 839 1 40.47 50.419999 0.0
 840 1 41.18 49.190243 0.0
 841 1 42.60  0.000000 0.0
 842 1 43.31  1.229756 0.0
 843 1 44.73  1.229756 0.0
 844 1 45.44  0.000000 0.0
 845 1 42.60  2.459512 0.0
 846 1 43.31  3.689268 0.0
 847 1 44.73  3.689268 0.0
 848 1 45.44  2.459512 0.0
 849 1 42.60  4.919024 0.0
 850 1 43.31  6.148780 0.0
 851 1 44.73  6.148780 0.0
 852 1 45.44  4.919024 0.0
 853 1 42.60  7.378536 0.0
 854 1 43.31  8.608293 0.0
 855 1 44.73  8.608293 0.0
 856 1 45.44  7.378536 0.0
 857 1 42.60  9.838049 0.0
 858 1 43.31 11.067805 0.0
 859 1 44.73 11.067805 0.0
 860 1 45.44  9.838049 0.0
 861 1 42.60 12.297561 0.0
 862 1 43.31 13.527317 0.0
 863 1 44.73 13.527317 0.0
 864 1 45.44 12.297561 0.0
 865 1 42.60 14.757073 0.0
 866 1 43.31 15.986829 0.0
 867 1 44.73 15.986829 0.0
 868 1 45.44 14.757073 0.0
 869 1 42.60 17.216585 0.0
 870 1 43.31 18.446341 0.0
 871 1 44.73 18.446341 0.0
 872 1 45.44 17.216585 0.0
 873 1 42.60 19.676097 0.0
 874 1 43.31 20.905853 0.0
 875 1 44.73 20.905853 0.0
 876 1 45.44 19.676097 0.0
 877 1 42.60 22.135609 0.0
 878 1 43.31 23.365365 0.0
 879 1 44.73 23.365365 0.0
 880 1 45.44 22.135609 0.0
 881 1 42.60 24.595121 0.0
 882 1 43.31 25.824878 0.0
 883 1 44.73 25.824878 0.0
 884 1 45.44 24.595121 0.0
 885 1 42.60 27.054634 0.0
 886 1 43.31 28.284390 0.0
 887 1 44.73 28.284390 0.0
 888 1 45.44 27.054634 0.0
 889 1 42.60 29.514146 0.0
 890 1 43.31 30.743902 0.0
 891 1 44.73 30.743902 0.0
 892 1 45.44 29.514146 0.0
 893 1 42.60 31.973658 0.0
 894 1 43.31 33.203414 0.0
 895 1 44.73 33.203414 0.0
 896 1 45.44 31.973658 0.0
 897 1 42.60 34.433170 0.0
 898 1 43.31 35.662926 0.0
 899 1 44.73 35.662926 0.0
 900 1 45.44 34.433170 0.0
 901 1 42.60 36.892682 0.0
 902 1 43.31 38.122438 0.0
 903 1 44.73 38.122438 0.0
 904 1 45.44 36.892682 0.0
 905 1 42.60 39.352194 0.0
 906 1 43.31 40.581950 0.0
 907 1 44.73 40.581950 0.0
 908 1 45.44 39.352194 0.0
 909 1 42.60 41.811706 0.0
 910 1 43.31 43.041463 0.0
 911 1 44.73 43.041463 0.0
 912 1 45.44 41.811706 0.0
 913 1 42.60 44.271219 0.0
 914 1 43.31 45.500975 0.0
 915 1 44.73 45.500975 0.0
 916 1 45.44 44.271219 0.0
 917 1 42.60 46.730731 0.0
 918 1 43.31 47.960487 0.0
 919 1 44.73 47.960487 0.0
 920 1 45.44 46.730731 0.0
 921 1 42.60 49.190243 0.0
 922 1 43.31 50.419999 0.0
 923 1 44.73 50.419999 0.0
 924 1 45.44 49.190243 0.0
 925 1 46.86  0.000000 0.0
 926 1 47.57  1.229756 0.0
 927 1 48.99  1.229756 0.0
 928 1 49.70  0.000000 0.0
 929 1 46.86  2.459512 0.0
 930 1 47.57  3.689268 0.0
 931 1 48.99  3.689268 0.0
 932 1 49.70  2.459512 0.0
 933 1 46.86  4.919024 0.0
 934 1 47.57  6.148780 0.0
 935 1 48.99  6.148780 0.0
 936 1 49.70  4.919024 0.0
 937 1 46.86  7.378536 0.0
 938 1 47.57  8.608293 0.0
 939 1 48.99  8.608293 0.0
 940 1 49.70  7.378536 0.0
 941 1 46.86  9.838049 0.0
 942 1 47.57 11.067805 0.0
 943 1 48.99 11.067805 0.0
 944 1 49.70  9.838049 0.0
 945 1 46.86 12.297561 0.0
 946 1 47.57 13.527317 0.0
 947 1 48.99 13.527317 0.0
 948 1 49.70 12.297561 0.0
 949 1 46.86 14.757073 0.0
 950 1 47.57 15.986829 0.0
 951 1 48.99 15.986829 0.0
 952 1 49.70 14.757073 0.0
 953 1 46.86 17.216585 0.0
 954 1 47.57 18.446341 0.0
 955 1 48.99 18.446341 0.0
 956 1 49.70 17.216585 0.0
 957 1 46.86 19.676097 0.0
 958 1 47.57 20.905853 0.0
 959 1 48.99 20.905853 0.0
 960 1 49.70 19.676097 0.0
 961 1 46.86 22.135609 0.0
 962 1 47.57 23.365365 0.0
 963 1 48.99 23.365365 0.0
 964 1 49.70 22.135609 0.0
 965 1 46.86 24.595121 0.0
 966 1 47.57 25.824878 0.0
 967 1 48.99 25.824878 0.0
 968 1 49.70 24.595121 0.0
 969 1 46.86 27.054634 0.0
 970 1 47.57 28.284390 0.0
 971 1 48.99 28.284390 0.0
 972 1 49.70 27.054634 0.0
 973 1 46.86 29.514146 0.0
 974 1 47.57 30.743902 0.0
 975 1 48.99 30.743902 0.0
 976 1 49.70 29.514146 0.0
 977 1 46.86 31.973658 0.0
 978 1 47.57 33.203414 0.0
 979 1 48.99 33.203414 0.0
 980 1 49.70 31.973658 0.0
 981 1 46.86 34.433170 0.0
 982 1 47.57 35.662926 0.0
 983 1 48.99 35.662926 0.0
 984 1 49.70 34.433170 0.0
 985 1 46.86 36.892682 0.0
 986 1 47.57 38.122438 0.0
 987 1 48.99 38.122438 0.0
 988 1 49.70 36.892682 0.0
 989 1 46.86 39.352194 0.0
 990 1 47.57 40.581950 0.0
 991 1 48.99 40.581950 0.0
 992 1 49.70 39.352194 0.0
 993 1 46.86 41.811706 0.0
 994 1 47.57 43.041463 0.0
 995 1 48.99 43.041463 0.0
 996 1 49.70 41.811706 0.0
 997 1 46.86 44.271219 0.0
 998 1 47.57 45.500975 0.0
 999 1 48.99 45.500975 0.0
1000 1 49.70 44.271219 0.0
1001 1 46.86 46.730731 0.0
1002 1 47.57 47.960487 0.0
1003 1 48.99 47.960487 0.0
1004 1 49.70 46.730731 0.0
1005 1 46.86 49.190243 0.0
1006 1 47.57 50.419999 0.0
1007 1 48.99 50.419999 0.0
1008 1 49.70 49.190243 0.0